TITLE = "STRAIGHT WING - WAKE CONVECT"
VARIABLES = "X",     "Y",     "Z"
ZONE T = "LS (     1)",   N =    25,  E =    16,   F = FEPOINT,   ET = QUADRILATERAL,  C = BLUE
   1.9318517    -2.0000000    -0.5176381
   0.9659258    -2.0000000    -0.2588190
   0.0000000    -2.0000000    -0.0000000
  -0.9659258    -2.0000000     0.2588190
  -1.9318517    -2.0000000     0.5176381
   1.9318517    -1.0000000    -0.5176381
   0.9659258    -1.0000000    -0.2588190
   0.0000000    -1.0000000    -0.0000000
  -0.9659258    -1.0000000     0.2588190
  -1.9318517    -1.0000000     0.5176381
   1.9318517     0.0000000    -0.5176381
   0.9659258     0.0000000    -0.2588190
   0.0000000     0.0000000    -0.0000000
  -0.9659258     0.0000000     0.2588190
  -1.9318517     0.0000000     0.5176381
   1.9318517     1.0000000    -0.5176381
   0.9659258     1.0000000    -0.2588190
   0.0000000     1.0000000    -0.0000000
  -0.9659258     1.0000000     0.2588190
  -1.9318517     1.0000000     0.5176381
   1.9318517     2.0000000    -0.5176381
   0.9659258     2.0000000    -0.2588190
   0.0000000     2.0000000    -0.0000000
  -0.9659258     2.0000000     0.2588190
  -1.9318517     2.0000000     0.5176381
    1      6      7      2
    2      7      8      3
    3      8      9      4
    4      9     10      5
    6     11     12      7
    7     12     13      8
    8     13     14      9
    9     14     15     10
   11     16     17     12
   12     17     18     13
   13     18     19     14
   14     19     20     15
   16     21     22     17
   17     22     23     18
   18     23     24     19
   19     24     25     20
ZONE T = "WAKE (     1)",   N =        26,  E =        12,   F = FEPOINT,   ET = QUADRILATERAL,  C = GREEN
   1.9318517    -2.0000000    -0.5176381
   0.9659258    -2.0000000    -0.2588190
   0.0000000    -2.0000000    -0.0000000
  -0.9659258    -2.0000000     0.2588190
  -1.9318517    -2.0000000     0.5176381
  -1.9318517    -1.0000000     0.5176381
  -1.9318517     0.0000000     0.5176381
  -1.9318517     1.0000000     0.5176381
  -1.9318517     2.0000000     0.5176381
  -0.9659258     2.0000000     0.2588190
   0.0000000     2.0000000    -0.0000000
   0.9659258     2.0000000    -0.2588190
   1.9318517     2.0000000    -0.5176381
   0.9326399    -2.0000000    -0.5146962
  -0.0198482    -2.0000000    -0.2057270
  -0.9862634    -2.0000000     0.0512659
  -1.9516999    -2.0000000     0.3119111
  -2.9310634    -2.0000000     0.5205800
  -2.9176257    -1.0000000     0.5707301
  -2.9181150     0.0000000     0.5689040
  -2.9176257     1.0000000     0.5707301
  -2.9310634     2.0000000     0.5205800
  -1.9516999     2.0000000     0.3119111
  -0.9862634     2.0000000     0.0512659
  -0.0198482     2.0000000    -0.2057270
   0.9326399     2.0000000    -0.5146962
    1      2     15     14
    2      3     16     15
    3      4     17     16
    4      5     18     17
    5      6     19     18
    6      7     20     19
    7      8     21     20
    8      9     22     21
    9     10     23     22
   10     11     24     23
   11     12     25     24
   12     13     26     25
ZONE T = "LS (     2)",   N =    25,  E =    16,   F = FEPOINT,   ET = QUADRILATERAL,  C = BLUE
   1.9318517    -2.0000000    -0.5176381
   0.9659258    -2.0000000    -0.2588190
   0.0000000    -2.0000000    -0.0000000
  -0.9659258    -2.0000000     0.2588190
  -1.9318517    -2.0000000     0.5176381
   1.9318517    -1.0000000    -0.5176381
   0.9659258    -1.0000000    -0.2588190
   0.0000000    -1.0000000    -0.0000000
  -0.9659258    -1.0000000     0.2588190
  -1.9318517    -1.0000000     0.5176381
   1.9318517     0.0000000    -0.5176381
   0.9659258     0.0000000    -0.2588190
   0.0000000     0.0000000    -0.0000000
  -0.9659258     0.0000000     0.2588190
  -1.9318517     0.0000000     0.5176381
   1.9318517     1.0000000    -0.5176381
   0.9659258     1.0000000    -0.2588190
   0.0000000     1.0000000    -0.0000000
  -0.9659258     1.0000000     0.2588190
  -1.9318517     1.0000000     0.5176381
   1.9318517     2.0000000    -0.5176381
   0.9659258     2.0000000    -0.2588190
   0.0000000     2.0000000    -0.0000000
  -0.9659258     2.0000000     0.2588190
  -1.9318517     2.0000000     0.5176381
    1      6      7      2
    2      7      8      3
    3      8      9      4
    4      9     10      5
    6     11     12      7
    7     12     13      8
    8     13     14      9
    9     14     15     10
   11     16     17     12
   12     17     18     13
   13     18     19     14
   14     19     20     15
   16     21     22     17
   17     22     23     18
   18     23     24     19
   19     24     25     20
ZONE T = "WAKE (     2)",   N =        39,  E =        24,   F = FEPOINT,   ET = QUADRILATERAL,  C = GREEN
   1.9318517    -2.0000000    -0.5176381
   0.9659258    -2.0000000    -0.2588190
   0.0000000    -2.0000000    -0.0000000
  -0.9659258    -2.0000000     0.2588190
  -1.9318517    -2.0000000     0.5176381
  -1.9318517    -1.0000000     0.5176381
  -1.9318517     0.0000000     0.5176381
  -1.9318517     1.0000000     0.5176381
  -1.9318517     2.0000000     0.5176381
  -0.9659258     2.0000000     0.2588190
   0.0000000     2.0000000    -0.0000000
   0.9659258     2.0000000    -0.2588190
   1.9318517     2.0000000    -0.5176381
   0.9309998    -2.0049723    -0.5174847
  -0.0205497    -2.3696910    -0.2043190
  -0.9873063    -2.4943648     0.0526496
  -1.9543469    -2.4872038     0.3115153
  -2.9278089    -2.3838175     0.5689130
  -2.8984506    -1.0144196     0.7079588
  -2.9004951     0.0000000     0.7152216
  -2.8984506     1.0144196     0.7079588
  -2.9278089     2.3838175     0.5689130
  -1.9543469     2.4872038     0.3115153
  -0.9873063     2.4943648     0.0526496
  -0.0205497     2.3696910    -0.2043190
   0.9309998     2.0049723    -0.5174847
  -0.1110066    -1.9241404    -0.4515278
  -1.0217701    -1.9298252    -0.1507675
  -1.9561143    -1.9334958     0.1015890
  -2.8696693    -1.9176858     0.3557212
  -3.9262894    -1.9961458     0.5166078
  -3.9022023    -0.9998790     0.6148729
  -3.9026602     0.0000000     0.6103789
  -3.9022023     0.9998790     0.6148729
  -3.9262894     1.9961458     0.5166078
  -2.8696693     1.9176858     0.3557212
  -1.9561143     1.9334958     0.1015890
  -1.0217701     1.9298252    -0.1507675
  -0.1110066     1.9241404    -0.4515278
    1      2     15     14
    2      3     16     15
    3      4     17     16
    4      5     18     17
    5      6     19     18
    6      7     20     19
    7      8     21     20
    8      9     22     21
    9     10     23     22
   10     11     24     23
   11     12     25     24
   12     13     26     25
   14     15     28     27
   15     16     29     28
   16     17     30     29
   17     18     31     30
   18     19     32     31
   19     20     33     32
   20     21     34     33
   21     22     35     34
   22     23     36     35
   23     24     37     36
   24     25     38     37
   25     26     39     38
ZONE T = "LS (     3)",   N =    25,  E =    16,   F = FEPOINT,   ET = QUADRILATERAL,  C = BLUE
   1.9318517    -2.0000000    -0.5176381
   0.9659258    -2.0000000    -0.2588190
   0.0000000    -2.0000000    -0.0000000
  -0.9659258    -2.0000000     0.2588190
  -1.9318517    -2.0000000     0.5176381
   1.9318517    -1.0000000    -0.5176381
   0.9659258    -1.0000000    -0.2588190
   0.0000000    -1.0000000    -0.0000000
  -0.9659258    -1.0000000     0.2588190
  -1.9318517    -1.0000000     0.5176381
   1.9318517     0.0000000    -0.5176381
   0.9659258     0.0000000    -0.2588190
   0.0000000     0.0000000    -0.0000000
  -0.9659258     0.0000000     0.2588190
  -1.9318517     0.0000000     0.5176381
   1.9318517     1.0000000    -0.5176381
   0.9659258     1.0000000    -0.2588190
   0.0000000     1.0000000    -0.0000000
  -0.9659258     1.0000000     0.2588190
  -1.9318517     1.0000000     0.5176381
   1.9318517     2.0000000    -0.5176381
   0.9659258     2.0000000    -0.2588190
   0.0000000     2.0000000    -0.0000000
  -0.9659258     2.0000000     0.2588190
  -1.9318517     2.0000000     0.5176381
    1      6      7      2
    2      7      8      3
    3      8      9      4
    4      9     10      5
    6     11     12      7
    7     12     13      8
    8     13     14      9
    9     14     15     10
   11     16     17     12
   12     17     18     13
   13     18     19     14
   14     19     20     15
   16     21     22     17
   17     22     23     18
   18     23     24     19
   19     24     25     20
ZONE T = "WAKE (     3)",   N =        52,  E =        36,   F = FEPOINT,   ET = QUADRILATERAL,  C = GREEN
   1.9318517    -2.0000000    -0.5176381
   0.9659258    -2.0000000    -0.2588190
   0.0000000    -2.0000000    -0.0000000
  -0.9659258    -2.0000000     0.2588190
  -1.9318517    -2.0000000     0.5176381
  -1.9318517    -1.0000000     0.5176381
  -1.9318517     0.0000000     0.5176381
  -1.9318517     1.0000000     0.5176381
  -1.9318517     2.0000000     0.5176381
  -0.9659258     2.0000000     0.2588190
   0.0000000     2.0000000    -0.0000000
   0.9659258     2.0000000    -0.2588190
   1.9318517     2.0000000    -0.5176381
   0.9288258    -2.0023439    -0.5216686
  -0.0258482    -2.3549706    -0.1931612
  -0.9860298    -2.2388647     0.1089931
  -1.9611059    -2.2527137     0.3173013
  -2.9245382    -2.2404370     0.5448515
  -2.8870763    -1.0346213     0.7201756
  -2.8891907     0.0000000     0.7237665
  -2.8870763     1.0346213     0.7201756
  -2.9245382     2.2404370     0.5448515
  -1.9611059     2.2527137     0.3173013
  -0.9860298     2.2388647     0.1089931
  -0.0258482     2.3549706    -0.1931612
   0.9288258     2.0023439    -0.5216686
  -0.1484190    -1.9232902    -0.4471425
  -1.0566918    -2.4325032    -0.3428483
  -2.0252714    -2.5430895    -0.0817377
  -2.9856857    -2.5333866     0.1856232
  -3.9487362    -2.4423749     0.4657055
  -3.8806416    -1.0408436     0.8781222
  -3.8875119     0.0000000     0.8958875
  -3.8806416     1.0408436     0.8781222
  -3.9487362     2.4423749     0.4657055
  -2.9856857     2.5333866     0.1856232
  -2.0252714     2.5430895    -0.0817377
  -1.0566918     2.4325032    -0.3428483
  -0.1484190     1.9232902    -0.4471425
  -1.1141459    -1.8410172    -0.3135311
  -1.9919522    -1.8706298    -0.0501760
  -2.8962799    -1.8890484     0.1665268
  -3.7459396    -1.9055261     0.4419361
  -4.9168394    -1.9887451     0.5059539
  -4.8842505    -0.9998058     0.6563545
  -4.8834938    -0.0000000     0.6480046
  -4.8842505     0.9998058     0.6563545
  -4.9168394     1.9887451     0.5059539
  -3.7459396     1.9055261     0.4419361
  -2.8962799     1.8890484     0.1665268
  -1.9919522     1.8706298    -0.0501760
  -1.1141459     1.8410172    -0.3135311
    1      2     15     14
    2      3     16     15
    3      4     17     16
    4      5     18     17
    5      6     19     18
    6      7     20     19
    7      8     21     20
    8      9     22     21
    9     10     23     22
   10     11     24     23
   11     12     25     24
   12     13     26     25
   14     15     28     27
   15     16     29     28
   16     17     30     29
   17     18     31     30
   18     19     32     31
   19     20     33     32
   20     21     34     33
   21     22     35     34
   22     23     36     35
   23     24     37     36
   24     25     38     37
   25     26     39     38
   27     28     41     40
   28     29     42     41
   29     30     43     42
   30     31     44     43
   31     32     45     44
   32     33     46     45
   33     34     47     46
   34     35     48     47
   35     36     49     48
   36     37     50     49
   37     38     51     50
   38     39     52     51
ZONE T = "LS (     4)",   N =    25,  E =    16,   F = FEPOINT,   ET = QUADRILATERAL,  C = BLUE
   1.9318517    -2.0000000    -0.5176381
   0.9659258    -2.0000000    -0.2588190
   0.0000000    -2.0000000    -0.0000000
  -0.9659258    -2.0000000     0.2588190
  -1.9318517    -2.0000000     0.5176381
   1.9318517    -1.0000000    -0.5176381
   0.9659258    -1.0000000    -0.2588190
   0.0000000    -1.0000000    -0.0000000
  -0.9659258    -1.0000000     0.2588190
  -1.9318517    -1.0000000     0.5176381
   1.9318517     0.0000000    -0.5176381
   0.9659258     0.0000000    -0.2588190
   0.0000000     0.0000000    -0.0000000
  -0.9659258     0.0000000     0.2588190
  -1.9318517     0.0000000     0.5176381
   1.9318517     1.0000000    -0.5176381
   0.9659258     1.0000000    -0.2588190
   0.0000000     1.0000000    -0.0000000
  -0.9659258     1.0000000     0.2588190
  -1.9318517     1.0000000     0.5176381
   1.9318517     2.0000000    -0.5176381
   0.9659258     2.0000000    -0.2588190
   0.0000000     2.0000000    -0.0000000
  -0.9659258     2.0000000     0.2588190
  -1.9318517     2.0000000     0.5176381
    1      6      7      2
    2      7      8      3
    3      8      9      4
    4      9     10      5
    6     11     12      7
    7     12     13      8
    8     13     14      9
    9     14     15     10
   11     16     17     12
   12     17     18     13
   13     18     19     14
   14     19     20     15
   16     21     22     17
   17     22     23     18
   18     23     24     19
   19     24     25     20
ZONE T = "WAKE (     4)",   N =        65,  E =        48,   F = FEPOINT,   ET = QUADRILATERAL,  C = GREEN
   1.9318517    -2.0000000    -0.5176381
   0.9659258    -2.0000000    -0.2588190
   0.0000000    -2.0000000    -0.0000000
  -0.9659258    -2.0000000     0.2588190
  -1.9318517    -2.0000000     0.5176381
  -1.9318517    -1.0000000     0.5176381
  -1.9318517     0.0000000     0.5176381
  -1.9318517     1.0000000     0.5176381
  -1.9318517     2.0000000     0.5176381
  -0.9659258     2.0000000     0.2588190
   0.0000000     2.0000000    -0.0000000
   0.9659258     2.0000000    -0.2588190
   1.9318517     2.0000000    -0.5176381
   0.9272016    -2.0013797    -0.5249525
  -0.0290991    -2.3678243    -0.1977072
  -0.9812107    -2.2492121     0.1305799
  -1.9429378    -2.2333654     0.4053992
  -2.9182941    -2.2238722     0.6108122
  -2.8852332    -1.0521959     0.7307087
  -2.8867455     0.0000000     0.7281794
  -2.8852332     1.0521959     0.7307087
  -2.9182941     2.2238722     0.6108122
  -1.9429378     2.2333654     0.4053992
  -0.9812107     2.2492121     0.1305799
  -0.0290991     2.3678243    -0.1977072
   0.9272016     2.0013797    -0.5249525
  -0.1660199    -1.9179209    -0.4486798
  -1.0541916    -2.4322282    -0.3278165
  -2.0123688    -2.3894042     0.0584297
  -2.9771893    -2.3962608     0.2363757
  -3.9384001    -2.3921521     0.4586306
  -3.8515247    -1.0830766     0.8993020
  -3.8547798     0.0000000     0.9120548
  -3.8515247     1.0830766     0.8993020
  -3.9384001     2.3921521     0.4586306
  -2.9771893     2.3962608     0.2363757
  -2.0123688     2.3894042     0.0584297
  -1.0541916     2.4322282    -0.3278165
  -0.1660199     1.9179209    -0.4486798
  -1.1729738    -1.8443259    -0.2904362
  -2.0859954    -2.3599881    -0.4611365
  -3.0524164    -2.5000822    -0.2109112
  -4.0054751    -2.5060123     0.0606272
  -4.9592311    -2.4400866     0.3498406
  -4.8755706    -1.0732041     1.0345680
  -4.8878141     0.0000000     1.0646733
  -4.8755706     1.0732041     1.0345680
  -4.9592311     2.4400866     0.3498406
  -4.0054751     2.5060123     0.0606272
  -3.0524164     2.5000822    -0.2109112
  -2.0859954     2.3599881    -0.4611365
  -1.1729738     1.8443259    -0.2904362
  -2.0886100    -1.7819612    -0.1374638
  -2.9368429    -1.8283780     0.0703293
  -3.8180304    -1.8586037     0.2444143
  -4.6443375    -1.9252602     0.5757226
  -5.9040015    -1.9766513     0.4935712
  -5.8656082    -0.9986907     0.6968650
  -5.8605610    -0.0000000     0.6842614
  -5.8656082     0.9986907     0.6968650
  -5.9040015     1.9766513     0.4935712
  -4.6443375     1.9252602     0.5757226
  -3.8180304     1.8586037     0.2444143
  -2.9368429     1.8283780     0.0703293
  -2.0886100     1.7819612    -0.1374638
    1      2     15     14
    2      3     16     15
    3      4     17     16
    4      5     18     17
    5      6     19     18
    6      7     20     19
    7      8     21     20
    8      9     22     21
    9     10     23     22
   10     11     24     23
   11     12     25     24
   12     13     26     25
   14     15     28     27
   15     16     29     28
   16     17     30     29
   17     18     31     30
   18     19     32     31
   19     20     33     32
   20     21     34     33
   21     22     35     34
   22     23     36     35
   23     24     37     36
   24     25     38     37
   25     26     39     38
   27     28     41     40
   28     29     42     41
   29     30     43     42
   30     31     44     43
   31     32     45     44
   32     33     46     45
   33     34     47     46
   34     35     48     47
   35     36     49     48
   36     37     50     49
   37     38     51     50
   38     39     52     51
   40     41     54     53
   41     42     55     54
   42     43     56     55
   43     44     57     56
   44     45     58     57
   45     46     59     58
   46     47     60     59
   47     48     61     60
   48     49     62     61
   49     50     63     62
   50     51     64     63
   51     52     65     64
ZONE T = "LS (     5)",   N =    25,  E =    16,   F = FEPOINT,   ET = QUADRILATERAL,  C = BLUE
   1.9318517    -2.0000000    -0.5176381
   0.9659258    -2.0000000    -0.2588190
   0.0000000    -2.0000000    -0.0000000
  -0.9659258    -2.0000000     0.2588190
  -1.9318517    -2.0000000     0.5176381
   1.9318517    -1.0000000    -0.5176381
   0.9659258    -1.0000000    -0.2588190
   0.0000000    -1.0000000    -0.0000000
  -0.9659258    -1.0000000     0.2588190
  -1.9318517    -1.0000000     0.5176381
   1.9318517     0.0000000    -0.5176381
   0.9659258     0.0000000    -0.2588190
   0.0000000     0.0000000    -0.0000000
  -0.9659258     0.0000000     0.2588190
  -1.9318517     0.0000000     0.5176381
   1.9318517     1.0000000    -0.5176381
   0.9659258     1.0000000    -0.2588190
   0.0000000     1.0000000    -0.0000000
  -0.9659258     1.0000000     0.2588190
  -1.9318517     1.0000000     0.5176381
   1.9318517     2.0000000    -0.5176381
   0.9659258     2.0000000    -0.2588190
   0.0000000     2.0000000    -0.0000000
  -0.9659258     2.0000000     0.2588190
  -1.9318517     2.0000000     0.5176381
    1      6      7      2
    2      7      8      3
    3      8      9      4
    4      9     10      5
    6     11     12      7
    7     12     13      8
    8     13     14      9
    9     14     15     10
   11     16     17     12
   12     17     18     13
   13     18     19     14
   14     19     20     15
   16     21     22     17
   17     22     23     18
   18     23     24     19
   19     24     25     20
ZONE T = "WAKE (     5)",   N =        78,  E =        60,   F = FEPOINT,   ET = QUADRILATERAL,  C = GREEN
   1.9318517    -2.0000000    -0.5176381
   0.9659258    -2.0000000    -0.2588190
   0.0000000    -2.0000000    -0.0000000
  -0.9659258    -2.0000000     0.2588190
  -1.9318517    -2.0000000     0.5176381
  -1.9318517    -1.0000000     0.5176381
  -1.9318517     0.0000000     0.5176381
  -1.9318517     1.0000000     0.5176381
  -1.9318517     2.0000000     0.5176381
  -0.9659258     2.0000000     0.2588190
   0.0000000     2.0000000    -0.0000000
   0.9659258     2.0000000    -0.2588190
   1.9318517     2.0000000    -0.5176381
   0.9259458    -2.0007323    -0.5272654
  -0.0331311    -2.3732004    -0.2003319
  -0.9863211    -2.2572007     0.1279007
  -1.9404170    -2.2408709     0.4236102
  -2.9066224    -2.2172170     0.6624847
  -2.8893098    -1.0624505     0.7377456
  -2.8890172     0.0000000     0.7317758
  -2.8893098     1.0624505     0.7377456
  -2.9066224     2.2172170     0.6624847
  -1.9404170     2.2408709     0.4236102
  -0.9863211     2.2572007     0.1279007
  -0.0331311     2.3732004    -0.2003319
   0.9259458     2.0007323    -0.5272654
  -0.1772268    -1.9148952    -0.4513593
  -1.0612325    -2.4432988    -0.3387041
  -2.0007953    -2.4223625     0.0925426
  -2.9440618    -2.4224203     0.4056385
  -3.9258144    -2.4108108     0.6050339
  -3.8478606    -1.1196190     0.9181351
  -3.8483167     0.0000000     0.9200767
  -3.8478606     1.1196190     0.9181351
  -3.9258144     2.4108108     0.6050339
  -2.9440618     2.4224203     0.4056385
  -2.0007953     2.4223625     0.0925426
  -1.0612325     2.4432988    -0.3387041
  -0.1772268     1.9148952    -0.4513593
  -1.2039414    -1.8384094    -0.2841290
  -2.0830097    -2.3666060    -0.4492582
  -3.0353289    -2.4519659    -0.0372197
  -3.9894373    -2.4606251     0.1199978
  -4.9582984    -2.4543806     0.3293737
  -4.8208379    -1.1412526     1.0635784
  -4.8251219     0.0000000     1.0891888
  -4.8208379     1.1412526     1.0635784
  -4.9582984     2.4543806     0.3293737
  -3.9894373     2.4606251     0.1199978
  -3.0353289     2.4519659    -0.0372197
  -2.0830097     2.3666060    -0.4492582
  -1.2039414     1.8384094    -0.2841290
  -2.1676544    -1.7972963    -0.1023490
  -3.0932600    -2.2205364    -0.5170165
  -4.0628329    -2.3967430    -0.3049740
  -5.0121058    -2.4202795    -0.0380626
  -5.9546105    -2.3768619     0.2473093
  -5.8817678    -1.1073534     1.1799711
  -5.8990994     0.0000000     1.2225112
  -5.8817678     1.1073534     1.1799711
  -5.9546105     2.3768619     0.2473093
  -5.0121058     2.4202795    -0.0380626
  -4.0628329     2.3967430    -0.3049740
  -3.0932600     2.2205364    -0.5170165
  -2.1676544     1.7972963    -0.1023490
  -3.0401869    -1.7672902     0.0455685
  -3.8720146    -1.8175664     0.1927451
  -4.7282823    -1.8436938     0.3360042
  -5.6147673    -1.9726199     0.7028969
  -6.8881220    -1.9594519     0.4813259
  -6.8475545    -0.9961760     0.7370298
  -6.8343402    -0.0000000     0.7204426
  -6.8475545     0.9961760     0.7370298
  -6.8881220     1.9594519     0.4813259
  -5.6147673     1.9726199     0.7028969
  -4.7282823     1.8436938     0.3360042
  -3.8720146     1.8175664     0.1927451
  -3.0401869     1.7672902     0.0455685
    1      2     15     14
    2      3     16     15
    3      4     17     16
    4      5     18     17
    5      6     19     18
    6      7     20     19
    7      8     21     20
    8      9     22     21
    9     10     23     22
   10     11     24     23
   11     12     25     24
   12     13     26     25
   14     15     28     27
   15     16     29     28
   16     17     30     29
   17     18     31     30
   18     19     32     31
   19     20     33     32
   20     21     34     33
   21     22     35     34
   22     23     36     35
   23     24     37     36
   24     25     38     37
   25     26     39     38
   27     28     41     40
   28     29     42     41
   29     30     43     42
   30     31     44     43
   31     32     45     44
   32     33     46     45
   33     34     47     46
   34     35     48     47
   35     36     49     48
   36     37     50     49
   37     38     51     50
   38     39     52     51
   40     41     54     53
   41     42     55     54
   42     43     56     55
   43     44     57     56
   44     45     58     57
   45     46     59     58
   46     47     60     59
   47     48     61     60
   48     49     62     61
   49     50     63     62
   50     51     64     63
   51     52     65     64
   53     54     67     66
   54     55     68     67
   55     56     69     68
   56     57     70     69
   57     58     71     70
   58     59     72     71
   59     60     73     72
   60     61     74     73
   61     62     75     74
   62     63     76     75
   63     64     77     76
   64     65     78     77
ZONE T = "LS (     6)",   N =    25,  E =    16,   F = FEPOINT,   ET = QUADRILATERAL,  C = BLUE
   1.9318517    -2.0000000    -0.5176381
   0.9659258    -2.0000000    -0.2588190
   0.0000000    -2.0000000    -0.0000000
  -0.9659258    -2.0000000     0.2588190
  -1.9318517    -2.0000000     0.5176381
   1.9318517    -1.0000000    -0.5176381
   0.9659258    -1.0000000    -0.2588190
   0.0000000    -1.0000000    -0.0000000
  -0.9659258    -1.0000000     0.2588190
  -1.9318517    -1.0000000     0.5176381
   1.9318517     0.0000000    -0.5176381
   0.9659258     0.0000000    -0.2588190
   0.0000000     0.0000000    -0.0000000
  -0.9659258     0.0000000     0.2588190
  -1.9318517     0.0000000     0.5176381
   1.9318517     1.0000000    -0.5176381
   0.9659258     1.0000000    -0.2588190
   0.0000000     1.0000000    -0.0000000
  -0.9659258     1.0000000     0.2588190
  -1.9318517     1.0000000     0.5176381
   1.9318517     2.0000000    -0.5176381
   0.9659258     2.0000000    -0.2588190
   0.0000000     2.0000000    -0.0000000
  -0.9659258     2.0000000     0.2588190
  -1.9318517     2.0000000     0.5176381
    1      6      7      2
    2      7      8      3
    3      8      9      4
    4      9     10      5
    6     11     12      7
    7     12     13      8
    8     13     14      9
    9     14     15     10
   11     16     17     12
   12     17     18     13
   13     18     19     14
   14     19     20     15
   16     21     22     17
   17     22     23     18
   18     23     24     19
   19     24     25     20
ZONE T = "WAKE (     6)",   N =        91,  E =        72,   F = FEPOINT,   ET = QUADRILATERAL,  C = GREEN
   1.9318517    -2.0000000    -0.5176381
   0.9659258    -2.0000000    -0.2588190
   0.0000000    -2.0000000    -0.0000000
  -0.9659258    -2.0000000     0.2588190
  -1.9318517    -2.0000000     0.5176381
  -1.9318517    -1.0000000     0.5176381
  -1.9318517     0.0000000     0.5176381
  -1.9318517     1.0000000     0.5176381
  -1.9318517     2.0000000     0.5176381
  -0.9659258     2.0000000     0.2588190
   0.0000000     2.0000000    -0.0000000
   0.9659258     2.0000000    -0.2588190
   1.9318517     2.0000000    -0.5176381
   0.9249872    -2.0002820    -0.5289896
  -0.0355528    -2.3766185    -0.2022726
  -0.9901791    -2.2618443     0.1271710
  -1.9449407    -2.2479688     0.4211402
  -2.9049782    -2.2231530     0.6730026
  -2.8936205    -1.0653850     0.7429547
  -2.8925521     0.0000000     0.7341629
  -2.8936205     1.0653850     0.7429547
  -2.9049782     2.2231530     0.6730026
  -1.9449407     2.2479688     0.4211402
  -0.9901791     2.2618443     0.1271710
  -0.0355528     2.3766185    -0.2022726
   0.9249872     2.0002820    -0.5289896
  -0.1846561    -1.9125783    -0.4533558
  -1.0684954    -2.4473349    -0.3451749
  -2.0120875    -2.4344456     0.0852048
  -2.9360661    -2.4497311     0.4439775
  -3.9003704    -2.4197191     0.7084618
  -3.8551043    -1.1386029     0.9318391
  -3.8527636     0.0000000     0.9266348
  -3.8551043     1.1386029     0.9318391
  -3.9003704     2.4197191     0.7084618
  -2.9360661     2.4497311     0.4439775
  -2.0120875     2.4344456     0.0852048
  -1.0684954     2.4473349    -0.3451749
  -0.1846561     1.9125783    -0.4533558
  -1.2237986    -1.8341218    -0.2827578
  -2.0969564    -2.3715265    -0.4637480
  -3.0193094    -2.5026659    -0.0050814
  -3.9468814    -2.5596255     0.3451346
  -4.9421240    -2.5519657     0.5423584
  -4.8164398    -1.1993561     1.0882411
  -4.8136403     0.0000000     1.1005189
  -4.8164398     1.1993561     1.0882411
  -4.9421240     2.5519657     0.5423584
  -3.9468814     2.5596255     0.3451346
  -3.0193094     2.5026659    -0.0050814
  -2.0969564     2.3715265    -0.4637480
  -1.2237986     1.8341218    -0.2827578
  -2.2121910    -1.7932273    -0.0885375
  -3.0936745    -2.2298831    -0.5077321
  -4.0500629    -2.4498874    -0.1393250
  -4.9949087    -2.4621510     0.0034837
  -5.9716964    -2.4377700     0.2038970
  -5.7944852    -1.2062292     1.2152292
  -5.7993899     0.0000000     1.2567113
  -5.7944852     1.2062292     1.2152292
  -5.9716964     2.4377700     0.2038970
  -4.9949087     2.4621510     0.0034837
  -4.0500629     2.4498874    -0.1393250
  -3.0936745     2.2298831    -0.5077321
  -2.2121910     1.7932273    -0.0885375
  -3.1376043    -1.7950614     0.0810003
  -4.0822542    -2.0596506    -0.5074836
  -5.0571517    -2.2578893    -0.3512739
  -6.0004142    -2.2940120    -0.0954745
  -6.9354861    -2.2695751     0.1791200
  -6.8978200    -1.1419255     1.3144446
  -6.9195485     0.0000000     1.3694850
  -6.8978200     1.1419255     1.3144446
  -6.9354861     2.2695751     0.1791200
  -6.0004142     2.2940120    -0.0954745
  -5.0571517     2.2578893    -0.3512739
  -4.0822542     2.0596506    -0.5074836
  -3.1376043     1.7950614     0.0810003
  -3.9865783    -1.7958245     0.2121779
  -4.8022946    -1.8322022     0.3102003
  -5.6356378    -1.8540391     0.4430444
  -6.6340163    -2.0209203     0.7908256
  -7.8695817    -1.9376353     0.4706622
  -7.8301068    -0.9923234     0.7767537
  -7.8049113     0.0000000     0.7573163
  -7.8301068     0.9923234     0.7767537
  -7.8695817     1.9376353     0.4706622
  -6.6340163     2.0209203     0.7908256
  -5.6356378     1.8540391     0.4430444
  -4.8022946     1.8322022     0.3102003
  -3.9865783     1.7958245     0.2121779
    1      2     15     14
    2      3     16     15
    3      4     17     16
    4      5     18     17
    5      6     19     18
    6      7     20     19
    7      8     21     20
    8      9     22     21
    9     10     23     22
   10     11     24     23
   11     12     25     24
   12     13     26     25
   14     15     28     27
   15     16     29     28
   16     17     30     29
   17     18     31     30
   18     19     32     31
   19     20     33     32
   20     21     34     33
   21     22     35     34
   22     23     36     35
   23     24     37     36
   24     25     38     37
   25     26     39     38
   27     28     41     40
   28     29     42     41